Program Version,EnergyPlus, Version 25.1.0-1c11a3d85f, YMD=2026.01.20 15:57
1,5,Environment Title[],Latitude[deg],Longitude[deg],Time Zone[],Elevation[m]
2,8,Day of Simulation[],Month[],Day of Month[],DST Indicator[1=yes 0=no],Hour[],StartMinute[],EndMinute[],DayType
3,5,Cumulative Day of Simulation[],Month[],Day of Month[],DST Indicator[1=yes 0=no],DayType  ! When Daily Report Variables Requested
4,2,Cumulative Days of Simulation[],Month[]  ! When Monthly Report Variables Requested
5,1,Cumulative Days of Simulation[] ! When Run Period Report Variables Requested
6,1,Calendar Year of Simulation[] ! When Annual Report Variables Requested
70,1,Cooling:Electricity [J] !Hourly
3757,1,ExteriorLights:Electricity [J] !Hourly
3658,1,Fans:Electricity [J] !Hourly
156,1,Heating:Electricity [J] !Hourly
1127,1,InteriorEquipment:Electricity [J] !Hourly
315,1,InteriorLights:Electricity [J] !Hourly
46,1,Electricity:Facility [J] !Hourly
45,1,Electricity:Facility [J] !TimeStep
End of Data Dictionary
1,MONTREAL INT'L ANN CLG .4% CONDNS DB=>MWB HVAC Sizing Pass 1,  45.47, -73.74,  -5.00,  36.00
2,1, 7,21, 0, 1, 0.00,15.00,SummerDesignDay
45,16217710.905031608
2,1, 7,21, 0, 1,15.00,30.00,SummerDesignDay
45,16005579.583387267
2,1, 7,21, 0, 1,30.00,45.00,SummerDesignDay
45,15798185.435495581
2,1, 7,21, 0, 1,45.00,60.00,SummerDesignDay
45,15601364.43162524
2,1, 7,21, 0, 1, 0.00,60.00,SummerDesignDay
46,63622840.3555397
70,22868641.722845845
156,0.0
315,0.0
1127,31039637.824534014
3658,7014560.808159752
3757,2700000.0
2,1, 7,21, 0, 2, 0.00,15.00,SummerDesignDay
45,13739914.050446618
2,1, 7,21, 0, 2,15.00,30.00,SummerDesignDay
45,13573114.830592047
2,1, 7,21, 0, 2,30.00,45.00,SummerDesignDay
45,13410492.16612618
2,1, 7,21, 0, 2,45.00,60.00,SummerDesignDay
45,13250140.91882775
2,1, 7,21, 0, 2, 0.00,60.00,SummerDesignDay
46,53973661.96599259
70,19038985.291673806
156,0.0
315,0.0
1127,25220115.86615897
3658,7014560.808159752
3757,2700000.0
2,1, 7,21, 0, 3, 0.00,15.00,SummerDesignDay
45,12035237.93468768
2,1, 7,21, 0, 3,15.00,30.00,SummerDesignDay
45,11881449.493571611
2,1, 7,21, 0, 3,30.00,45.00,SummerDesignDay
45,11731368.472404754
2,1, 7,21, 0, 3,45.00,60.00,SummerDesignDay
45,11583734.337009154
2,1, 7,21, 0, 3, 0.00,60.00,SummerDesignDay
46,47231790.2376732
70,15928911.457914881
156,0.0
315,0.0
1127,21588317.97159852
3658,7014560.808159752
3757,2700000.0
2,1, 7,21, 0, 4, 0.00,15.00,SummerDesignDay
45,11002961.566061419
2,1, 7,21, 0, 4,15.00,30.00,SummerDesignDay
45,10856360.830185413
2,1, 7,21, 0, 4,30.00,45.00,SummerDesignDay
45,10712963.13588775
2,1, 7,21, 0, 4,45.00,60.00,SummerDesignDay
45,10571522.50662244
2,1, 7,21, 0, 4, 0.00,60.00,SummerDesignDay
46,43143808.03875702
70,13001278.298761247
156,0.0
315,0.0
1127,20427968.93183606
3658,7014560.808159752
3757,2700000.0
2,1, 7,21, 0, 5, 0.00,15.00,SummerDesignDay
45,11118700.549227392
2,1, 7,21, 0, 5,15.00,30.00,SummerDesignDay
45,10991779.02775208
2,1, 7,21, 0, 5,30.00,45.00,SummerDesignDay
45,11086908.581922287
2,1, 7,21, 0, 5,45.00,60.00,SummerDesignDay
45,11395829.639489723
2,1, 7,21, 0, 5, 0.00,60.00,SummerDesignDay
46,44593217.798391484
70,12796921.438357579
156,0.0
315,0.0
1127,22081735.55187408
3658,7014560.808159752
3757,2700000.0
2,1, 7,21, 0, 6, 0.00,15.00,SummerDesignDay
45,12274597.486737162
2,1, 7,21, 0, 6,15.00,30.00,SummerDesignDay
45,12774473.191909423
2,1, 7,21, 0, 6,30.00,45.00,SummerDesignDay
45,13260455.69315379
2,1, 7,21, 0, 6,45.00,60.00,SummerDesignDay
45,13754351.68403049
2,1, 7,21, 0, 6, 0.00,60.00,SummerDesignDay
46,52063878.055830866
70,18581039.150637556
156,0.0
315,0.0
1127,26468278.09703359
3658,7014560.808159752
3757,0.0
2,1, 7,21, 0, 7, 0.00,15.00,SummerDesignDay
45,17932801.974671934
2,1, 7,21, 0, 7,15.00,30.00,SummerDesignDay
45,18435255.519614387
2,1, 7,21, 0, 7,30.00,45.00,SummerDesignDay
45,18913950.513040476
2,1, 7,21, 0, 7,45.00,60.00,SummerDesignDay
45,19352157.131177343
2,1, 7,21, 0, 7, 0.00,60.00,SummerDesignDay
46,74634165.13850415
70,28672624.228988703
156,0.0
315,0.0
1127,38946980.10135566
3658,7014560.808159752
3757,0.0
2,1, 7,21, 0, 8, 0.00,15.00,SummerDesignDay
45,21721290.081993505
2,1, 7,21, 0, 8,15.00,30.00,SummerDesignDay
45,22157649.986702036
2,1, 7,21, 0, 8,30.00,45.00,SummerDesignDay
45,22539867.425555777
2,1, 7,21, 0, 8,45.00,60.00,SummerDesignDay
45,22892383.736213308
2,1, 7,21, 0, 8, 0.00,60.00,SummerDesignDay
46,89311191.23046464
70,35160158.60329694
156,0.0
315,0.0
1127,47136471.81900824
3658,7014560.808159752
3757,0.0
2,1, 7,21, 0, 9, 0.00,15.00,SummerDesignDay
45,22438719.346452676
2,1, 7,21, 0, 9,15.00,30.00,SummerDesignDay
45,22756805.43510629
2,1, 7,21, 0, 9,30.00,45.00,SummerDesignDay
45,23056726.11296699
2,1, 7,21, 0, 9,45.00,60.00,SummerDesignDay
45,23337123.171076518
2,1, 7,21, 0, 9, 0.00,60.00,SummerDesignDay
46,91589374.06560247
70,39890965.14436528
156,0.0
315,0.0
1127,44683848.1130777
3658,7014560.808159752
3757,0.0
2,1, 7,21, 0,10, 0.00,15.00,SummerDesignDay
45,22716235.86985771
2,1, 7,21, 0,10,15.00,30.00,SummerDesignDay
45,22928115.04314302
2,1, 7,21, 0,10,30.00,45.00,SummerDesignDay
45,23109547.41330503
2,1, 7,21, 0,10,45.00,60.00,SummerDesignDay
45,23266328.310139317
2,1, 7,21, 0,10, 0.00,60.00,SummerDesignDay
46,92020226.63644508
70,43565447.038861126
156,0.0
315,0.0
1127,41440218.78942444
3658,7014560.808159752
3757,0.0
2,1, 7,21, 0,11, 0.00,15.00,SummerDesignDay
45,22204014.095806632
2,1, 7,21, 0,11,15.00,30.00,SummerDesignDay
45,22304420.95336576
2,1, 7,21, 0,11,30.00,45.00,SummerDesignDay
45,22404986.309930414
2,1, 7,21, 0,11,45.00,60.00,SummerDesignDay
45,22498746.54641784
2,1, 7,21, 0,11, 0.00,60.00,SummerDesignDay
46,89412167.90552065
70,43923639.49502428
156,0.0
315,0.0
1127,38473967.60233667
3658,7014560.808159752
3757,0.0
2,1, 7,21, 0,12, 0.00,15.00,SummerDesignDay
45,22841117.897144284
2,1, 7,21, 0,12,15.00,30.00,SummerDesignDay
45,22905991.736318868
2,1, 7,21, 0,12,30.00,45.00,SummerDesignDay
45,22991561.43460173
2,1, 7,21, 0,12,45.00,60.00,SummerDesignDay
45,23137155.465817723
2,1, 7,21, 0,12, 0.00,60.00,SummerDesignDay
46,91875826.5338826
70,45368779.51492427
156,0.0
315,0.0
1127,39492486.21079855
3658,7014560.808159752
3757,0.0
2,1, 7,21, 0,13, 0.00,15.00,SummerDesignDay
45,24579377.231062543
2,1, 7,21, 0,13,15.00,30.00,SummerDesignDay
45,24882571.150095228
2,1, 7,21, 0,13,30.00,45.00,SummerDesignDay
45,25229704.341091033
2,1, 7,21, 0,13,45.00,60.00,SummerDesignDay
45,25593612.66120593
2,1, 7,21, 0,13, 0.00,60.00,SummerDesignDay
46,100285265.38345474
70,50268089.5879287
156,0.0
315,0.0
1127,43002614.98736606
3658,7014560.808159752
3757,0.0
2,1, 7,21, 0,14, 0.00,15.00,SummerDesignDay
45,25586697.60084053
2,1, 7,21, 0,14,15.00,30.00,SummerDesignDay
45,25956122.334224984
2,1, 7,21, 0,14,30.00,45.00,SummerDesignDay
45,26318745.277130544
2,1, 7,21, 0,14,45.00,60.00,SummerDesignDay
45,26678443.81734725
2,1, 7,21, 0,14, 0.00,60.00,SummerDesignDay
46,104540009.02954331
70,55724868.138772346
156,0.0
315,0.0
1127,41800580.08261109
3658,7014560.808159752
3757,0.0
2,1, 7,21, 0,15, 0.00,15.00,SummerDesignDay
45,25527242.62537224
2,1, 7,21, 0,15,15.00,30.00,SummerDesignDay
45,25791751.8541695
2,1, 7,21, 0,15,30.00,45.00,SummerDesignDay
45,26034917.925339747
2,1, 7,21, 0,15,45.00,60.00,SummerDesignDay
45,26248142.55686067
2,1, 7,21, 0,15, 0.00,60.00,SummerDesignDay
46,103602054.96174215
70,60052245.40145373
156,0.0
315,0.0
1127,36535248.752128564
3658,7014560.808159752
3757,0.0
2,1, 7,21, 0,16, 0.00,15.00,SummerDesignDay
45,26810545.178746242
2,1, 7,21, 0,16,15.00,30.00,SummerDesignDay
45,26892608.18677464
2,1, 7,21, 0,16,30.00,45.00,SummerDesignDay
45,26936337.805003364
2,1, 7,21, 0,16,45.00,60.00,SummerDesignDay
45,26944283.346393973
2,1, 7,21, 0,16, 0.00,60.00,SummerDesignDay
46,107583774.51691821
70,62935048.72121167
156,0.0
315,0.0
1127,37634164.98754686
3658,7014560.808159752
3757,0.0
2,1, 7,21, 0,17, 0.00,15.00,SummerDesignDay
45,27727657.6441814
2,1, 7,21, 0,17,15.00,30.00,SummerDesignDay
45,27651608.3769436
2,1, 7,21, 0,17,30.00,45.00,SummerDesignDay
45,27550933.532653224
2,1, 7,21, 0,17,45.00,60.00,SummerDesignDay
45,27422881.514607236
2,1, 7,21, 0,17, 0.00,60.00,SummerDesignDay
46,110353081.06838547
70,61443880.80566453
156,0.0
315,0.0
1127,41894639.45456092
3658,7014560.808159752
3757,0.0
2,1, 7,21, 0,18, 0.00,15.00,SummerDesignDay
45,29904327.772967227
2,1, 7,21, 0,18,15.00,30.00,SummerDesignDay
45,29644868.974559475
2,1, 7,21, 0,18,30.00,45.00,SummerDesignDay
45,29358715.542904682
2,1, 7,21, 0,18,45.00,60.00,SummerDesignDay
45,29022121.0222117
2,1, 7,21, 0,18, 0.00,60.00,SummerDesignDay
46,117930033.31264308
70,60448327.64363448
156,0.0
315,0.0
1127,50467144.86084902
3658,7014560.808159752
3757,0.0
2,1, 7,21, 0,19, 0.00,15.00,SummerDesignDay
45,30642310.653247915
2,1, 7,21, 0,19,15.00,30.00,SummerDesignDay
45,30137390.14467677
2,1, 7,21, 0,19,30.00,45.00,SummerDesignDay
45,29484135.333816167
2,1, 7,21, 0,19,45.00,60.00,SummerDesignDay
45,28795136.181760196
2,1, 7,21, 0,19, 0.00,60.00,SummerDesignDay
46,119058972.31350105
70,54750750.7877554
156,0.0
315,0.0
1127,57293660.71758548
3658,7014560.808159752
3757,0.0
2,1, 7,21, 0,20, 0.00,15.00,SummerDesignDay
45,27701592.086282767
2,1, 7,21, 0,20,15.00,30.00,SummerDesignDay
45,27014111.94119855
2,1, 7,21, 0,20,30.00,45.00,SummerDesignDay
45,26503956.167369813
2,1, 7,21, 0,20,45.00,60.00,SummerDesignDay
45,26123795.045587953
2,1, 7,21, 0,20, 0.00,60.00,SummerDesignDay
46,107343455.24043909
70,43448729.08600438
156,0.0
315,2606580.0
1127,54273585.346275024
3658,7014560.808159752
3757,0.0
2,1, 7,21, 0,21, 0.00,15.00,SummerDesignDay
45,27668699.414886173
2,1, 7,21, 0,21,15.00,30.00,SummerDesignDay
45,27414122.209392805
2,1, 7,21, 0,21,30.00,45.00,SummerDesignDay
45,27169527.664068963
2,1, 7,21, 0,21,45.00,60.00,SummerDesignDay
45,26938559.326097816
2,1, 7,21, 0,21, 0.00,60.00,SummerDesignDay
46,109190908.61444576
70,38649692.78117131
156,0.0
315,13032900.0
1127,47793755.02511487
3658,7014560.808159752
3757,2700000.0
2,1, 7,21, 0,22, 0.00,15.00,SummerDesignDay
45,25908564.36951244
2,1, 7,21, 0,22,15.00,30.00,SummerDesignDay
45,25695512.029797673
2,1, 7,21, 0,22,30.00,45.00,SummerDesignDay
45,25485915.07010879
2,1, 7,21, 0,22,45.00,60.00,SummerDesignDay
45,25277809.08349515
2,1, 7,21, 0,22, 0.00,60.00,SummerDesignDay
46,102367800.55291405
70,35376363.55108473
156,0.0
315,13032900.0
1127,44243976.19366945
3658,7014560.808159752
3757,2700000.0
2,1, 7,21, 0,23, 0.00,15.00,SummerDesignDay
45,22407217.215222064
2,1, 7,21, 0,23,15.00,30.00,SummerDesignDay
45,22185875.169791568
2,1, 7,21, 0,23,30.00,45.00,SummerDesignDay
45,21975336.772571016
2,1, 7,21, 0,23,45.00,60.00,SummerDesignDay
45,21766075.353831902
2,1, 7,21, 0,23, 0.00,60.00,SummerDesignDay
46,88334504.51141655
70,30248650.92092241
156,0.0
315,5213160.0
1127,43158132.782334335
3658,7014560.808159752
3757,2700000.0
2,1, 7,21, 0,24, 0.00,15.00,SummerDesignDay
45,19050815.895290636
2,1, 7,21, 0,24,15.00,30.00,SummerDesignDay
45,18824851.494003322
2,1, 7,21, 0,24,30.00,45.00,SummerDesignDay
45,18607721.458267547
2,1, 7,21, 0,24,45.00,60.00,SummerDesignDay
45,18391664.020584695
2,1, 7,21, 0,24, 0.00,60.00,SummerDesignDay
46,74875052.8681462
70,26751436.253300328
156,0.0
315,0.0
1127,38409055.80668603
3658,7014560.808159752
3757,2700000.0
1,MONTREAL INT'L ANN CLG .4% CONDNS DP=>MDB HVAC Sizing Pass 1,  45.47, -73.74,  -5.00,  36.00
2,1, 7,21, 0, 1, 0.00,15.00,SummerDesignDay
45,13822973.361227307
2,1, 7,21, 0, 1,15.00,30.00,SummerDesignDay
45,13620502.018267302
2,1, 7,21, 0, 1,30.00,45.00,SummerDesignDay
45,13422941.133422498
2,1, 7,21, 0, 1,45.00,60.00,SummerDesignDay
45,13228419.820800472
2,1, 7,21, 0, 1, 0.00,60.00,SummerDesignDay
46,54094836.33371757
70,13340637.70102376
156,0.0
315,0.0
1127,31039637.824534014
3658,7014560.808159752
3757,2700000.0
2,1, 7,21, 0, 2, 0.00,15.00,SummerDesignDay
45,11354257.060148517
2,1, 7,21, 0, 2,15.00,30.00,SummerDesignDay
45,11171946.605961576
2,1, 7,21, 0, 2,30.00,45.00,SummerDesignDay
45,10995955.963895515
2,1, 7,21, 0, 2,45.00,60.00,SummerDesignDay
45,10829421.634133054
2,1, 7,21, 0, 2, 0.00,60.00,SummerDesignDay
46,44351581.26413866
70,9416904.589819977
156,0.0
315,0.0
1127,25220115.86615897
3658,7014560.808159752
3757,2700000.0
2,1, 7,21, 0, 3, 0.00,15.00,SummerDesignDay
45,9551368.784275115
2,1, 7,21, 0, 3,15.00,30.00,SummerDesignDay
45,9471157.639097061
2,1, 7,21, 0, 3,30.00,45.00,SummerDesignDay
45,9290333.850555178
2,1, 7,21, 0, 3,45.00,60.00,SummerDesignDay
45,9155413.076351555
2,1, 7,21, 0, 3, 0.00,60.00,SummerDesignDay
46,37468273.35027891
70,6165394.570520663
156,0.0
315,0.0
1127,21588317.97159852
3658,7014560.808159752
3757,2700000.0
2,1, 7,21, 0, 4, 0.00,15.00,SummerDesignDay
45,8605732.003896324
2,1, 7,21, 0, 4,15.00,30.00,SummerDesignDay
45,8499345.761748103
2,1, 7,21, 0, 4,30.00,45.00,SummerDesignDay
45,8403195.85825865
2,1, 7,21, 0, 4,45.00,60.00,SummerDesignDay
45,8316370.986603982
2,1, 7,21, 0, 4, 0.00,60.00,SummerDesignDay
46,33824644.610507056
70,3682114.87051123
156,0.0
315,0.0
1127,20427968.93183606
3658,7014560.808159752
3757,2700000.0
2,1, 7,21, 0, 5, 0.00,15.00,SummerDesignDay
45,8856307.988982905
2,1, 7,21, 0, 5,15.00,30.00,SummerDesignDay
45,8783089.385088746
2,1, 7,21, 0, 5,30.00,45.00,SummerDesignDay
45,8856011.740482762
2,1, 7,21, 0, 5,45.00,60.00,SummerDesignDay
45,9075798.769928932
2,1, 7,21, 0, 5, 0.00,60.00,SummerDesignDay
46,35571207.884483345
70,3774911.524449519
156,0.0
315,0.0
1127,22081735.55187408
3658,7014560.808159752
3757,2700000.0
2,1, 7,21, 0, 6, 0.00,15.00,SummerDesignDay
45,9900724.093137791
2,1, 7,21, 0, 6,15.00,30.00,SummerDesignDay
45,10377135.913959943
2,1, 7,21, 0, 6,30.00,45.00,SummerDesignDay
45,10819679.482404081
2,1, 7,21, 0, 6,45.00,60.00,SummerDesignDay
45,11270628.978380492
2,1, 7,21, 0, 6, 0.00,60.00,SummerDesignDay
46,42368168.46788231
70,8885329.562688958
156,0.0
315,0.0
1127,26468278.09703359
3658,7014560.808159752
3757,0.0
2,1, 7,21, 0, 7, 0.00,15.00,SummerDesignDay
45,15352482.636347834
2,1, 7,21, 0, 7,15.00,30.00,SummerDesignDay
45,15791451.326529853
2,1, 7,21, 0, 7,30.00,45.00,SummerDesignDay
45,16231041.804416649
2,1, 7,21, 0, 7,45.00,60.00,SummerDesignDay
45,16643723.424821617
2,1, 7,21, 0, 7, 0.00,60.00,SummerDesignDay
46,64018699.19211595
70,18057158.282600433
156,0.0
315,0.0
1127,38946980.10135566
3658,7014560.808159752
3757,0.0
2,1, 7,21, 0, 8, 0.00,15.00,SummerDesignDay
45,19052186.33403613
2,1, 7,21, 0, 8,15.00,30.00,SummerDesignDay
45,19510598.5965045
2,1, 7,21, 0, 8,30.00,45.00,SummerDesignDay
45,19934397.241130233
2,1, 7,21, 0, 8,45.00,60.00,SummerDesignDay
45,20306148.282816887
2,1, 7,21, 0, 8, 0.00,60.00,SummerDesignDay
46,78803330.45448774
70,24652297.82731998
156,0.0
315,0.0
1127,47136471.81900824
3658,7014560.808159752
3757,0.0
2,1, 7,21, 0, 9, 0.00,15.00,SummerDesignDay
45,19872123.577449773
2,1, 7,21, 0, 9,15.00,30.00,SummerDesignDay
45,20213423.648078814
2,1, 7,21, 0, 9,30.00,45.00,SummerDesignDay
45,20538329.635508873
2,1, 7,21, 0, 9,45.00,60.00,SummerDesignDay
45,20843429.380987167
2,1, 7,21, 0, 9, 0.00,60.00,SummerDesignDay
46,81467306.24202463
70,29768897.320787355
156,0.0
315,0.0
1127,44683848.1130777
3658,7014560.808159752
3757,0.0
2,1, 7,21, 0,10, 0.00,15.00,SummerDesignDay
45,20242184.242398057
2,1, 7,21, 0,10,15.00,30.00,SummerDesignDay
45,20477143.60377468
2,1, 7,21, 0,10,30.00,45.00,SummerDesignDay
45,20677434.243201025
2,1, 7,21, 0,10,45.00,60.00,SummerDesignDay
45,20843533.509965252
2,1, 7,21, 0,10, 0.00,60.00,SummerDesignDay
46,82240295.59933901
70,33785516.001755066
156,0.0
315,0.0
1127,41440218.78942444
3658,7014560.808159752
3757,0.0
2,1, 7,21, 0,11, 0.00,15.00,SummerDesignDay
45,19739530.06818454
2,1, 7,21, 0,11,15.00,30.00,SummerDesignDay
45,19834585.92775406
2,1, 7,21, 0,11,30.00,45.00,SummerDesignDay
45,19923648.374474987
2,1, 7,21, 0,11,45.00,60.00,SummerDesignDay
45,20002947.369642116
2,1, 7,21, 0,11, 0.00,60.00,SummerDesignDay
46,79500711.74005571
70,34012183.329559356
156,0.0
315,0.0
1127,38473967.60233667
3658,7014560.808159752
3757,0.0
2,1, 7,21, 0,12, 0.00,15.00,SummerDesignDay
45,20337315.79755879
2,1, 7,21, 0,12,15.00,30.00,SummerDesignDay
45,20389144.703782044
2,1, 7,21, 0,12,30.00,45.00,SummerDesignDay
45,20460202.622633874
2,1, 7,21, 0,12,45.00,60.00,SummerDesignDay
45,20587775.944281634
2,1, 7,21, 0,12, 0.00,60.00,SummerDesignDay
46,81774439.06825635
70,35267392.04929808
156,0.0
315,0.0
1127,39492486.21079855
3658,7014560.808159752
3757,0.0
2,1, 7,21, 0,13, 0.00,15.00,SummerDesignDay
45,22040130.08798353
2,1, 7,21, 0,13,15.00,30.00,SummerDesignDay
45,22288485.16131944
2,1, 7,21, 0,13,30.00,45.00,SummerDesignDay
45,22577819.274549227
2,1, 7,21, 0,13,45.00,60.00,SummerDesignDay
45,22895543.448969927
2,1, 7,21, 0,13, 0.00,60.00,SummerDesignDay
46,89801977.97282213
70,39784802.17729614
156,0.0
315,0.0
1127,43002614.98736606
3658,7014560.808159752
3757,0.0
2,1, 7,21, 0,14, 0.00,15.00,SummerDesignDay
45,22846063.661680616
2,1, 7,21, 0,14,15.00,30.00,SummerDesignDay
45,23171928.97128504
2,1, 7,21, 0,14,30.00,45.00,SummerDesignDay
45,23494651.49968534
2,1, 7,21, 0,14,45.00,60.00,SummerDesignDay
45,23803664.215086423
2,1, 7,21, 0,14, 0.00,60.00,SummerDesignDay
46,93316308.34773743
70,44501167.456966564
156,0.0
315,0.0
1127,41800580.08261109
3658,7014560.808159752
3757,0.0
2,1, 7,21, 0,15, 0.00,15.00,SummerDesignDay
45,22604524.277979545
2,1, 7,21, 0,15,15.00,30.00,SummerDesignDay
45,22863372.3864727
2,1, 7,21, 0,15,30.00,45.00,SummerDesignDay
45,23116093.02612345
2,1, 7,21, 0,15,45.00,60.00,SummerDesignDay
45,23311184.240999997
2,1, 7,21, 0,15, 0.00,60.00,SummerDesignDay
46,91895173.93157569
70,48345364.37128738
156,0.0
315,0.0
1127,36535248.752128564
3658,7014560.808159752
3757,0.0
2,1, 7,21, 0,16, 0.00,15.00,SummerDesignDay
45,23882954.525560923
2,1, 7,21, 0,16,15.00,30.00,SummerDesignDay
45,23971847.75577953
2,1, 7,21, 0,16,30.00,45.00,SummerDesignDay
45,24023761.596766643
2,1, 7,21, 0,16,45.00,60.00,SummerDesignDay
45,24041278.751476094
2,1, 7,21, 0,16, 0.00,60.00,SummerDesignDay
46,95919842.6295832
70,51271116.8338766
156,0.0
315,0.0
1127,37634164.98754686
3658,7014560.808159752
3757,0.0
2,1, 7,21, 0,17, 0.00,15.00,SummerDesignDay
45,24825335.324882813
2,1, 7,21, 0,17,15.00,30.00,SummerDesignDay
45,24769653.19391762
2,1, 7,21, 0,17,30.00,45.00,SummerDesignDay
45,24690693.97175711
2,1, 7,21, 0,17,45.00,60.00,SummerDesignDay
45,24587134.197112598
2,1, 7,21, 0,17, 0.00,60.00,SummerDesignDay
46,98872816.68767014
70,49963616.4249493
156,0.0
315,0.0
1127,41894639.45456092
3658,7014560.808159752
3757,0.0
2,1, 7,21, 0,18, 0.00,15.00,SummerDesignDay
45,27132966.221380617
2,1, 7,21, 0,18,15.00,30.00,SummerDesignDay
45,26906402.106737398
2,1, 7,21, 0,18,30.00,45.00,SummerDesignDay
45,26650986.25971557
2,1, 7,21, 0,18,45.00,60.00,SummerDesignDay
45,26350561.732508387
2,1, 7,21, 0,18, 0.00,60.00,SummerDesignDay
46,107040916.32034197
70,49559210.65133331
156,0.0
315,0.0
1127,50467144.86084902
3658,7014560.808159752
3757,0.0
2,1, 7,21, 0,19, 0.00,15.00,SummerDesignDay
45,28043108.859837826
2,1, 7,21, 0,19,15.00,30.00,SummerDesignDay
45,27585074.940292235
2,1, 7,21, 0,19,30.00,45.00,SummerDesignDay
45,26982474.822199486
2,1, 7,21, 0,19,45.00,60.00,SummerDesignDay
45,26345599.609564617
2,1, 7,21, 0,19, 0.00,60.00,SummerDesignDay
46,108956258.23189417
70,44648036.7061487
156,0.0
315,0.0
1127,57293660.71758548
3658,7014560.808159752
3757,0.0
2,1, 7,21, 0,20, 0.00,15.00,SummerDesignDay
45,25287145.578927834
2,1, 7,21, 0,20,15.00,30.00,SummerDesignDay
45,24625200.030213993
2,1, 7,21, 0,20,30.00,45.00,SummerDesignDay
45,24135404.623115517
2,1, 7,21, 0,20,45.00,60.00,SummerDesignDay
45,23766445.804697312
2,1, 7,21, 0,20, 0.00,60.00,SummerDesignDay
46,97814196.03695464
70,33919469.88252
156,0.0
315,2606580.0
1127,54273585.346275024
3658,7014560.808159752
3757,0.0
2,1, 7,21, 0,21, 0.00,15.00,SummerDesignDay
45,25331451.569558077
2,1, 7,21, 0,21,15.00,30.00,SummerDesignDay
45,25074469.631941266
2,1, 7,21, 0,21,30.00,45.00,SummerDesignDay
45,24821774.976130594
2,1, 7,21, 0,21,45.00,60.00,SummerDesignDay
45,24577520.47488019
2,1, 7,21, 0,21, 0.00,60.00,SummerDesignDay
46,99805216.65251012
70,29264000.81923561
156,0.0
315,13032900.0
1127,47793755.02511487
3658,7014560.808159752
3757,2700000.0
2,1, 7,21, 0,22, 0.00,15.00,SummerDesignDay
45,23540070.643566735
2,1, 7,21, 0,22,15.00,30.00,SummerDesignDay
45,23309159.362049308
2,1, 7,21, 0,22,30.00,45.00,SummerDesignDay
45,23078821.439665325
2,1, 7,21, 0,22,45.00,60.00,SummerDesignDay
45,22820465.45969462
2,1, 7,21, 0,22, 0.00,60.00,SummerDesignDay
46,92748516.90497598
70,25757079.903146747
156,0.0
315,13032900.0
1127,44243976.19366945
3658,7014560.808159752
3757,2700000.0
2,1, 7,21, 0,23, 0.00,15.00,SummerDesignDay
45,19951156.01315965
2,1, 7,21, 0,23,15.00,30.00,SummerDesignDay
45,19721017.174039405
2,1, 7,21, 0,23,30.00,45.00,SummerDesignDay
45,19517487.99380989
2,1, 7,21, 0,23,45.00,60.00,SummerDesignDay
45,19316094.282576375
2,1, 7,21, 0,23, 0.00,60.00,SummerDesignDay
46,78505755.46358532
70,20419901.873091172
156,0.0
315,5213160.0
1127,43158132.782334335
3658,7014560.808159752
3757,2700000.0
2,1, 7,21, 0,24, 0.00,15.00,SummerDesignDay
45,16609360.694547972
2,1, 7,21, 0,24,15.00,30.00,SummerDesignDay
45,16392545.025538854
2,1, 7,21, 0,24,30.00,45.00,SummerDesignDay
45,16183245.071846507
2,1, 7,21, 0,24,45.00,60.00,SummerDesignDay
45,15976573.742552308
2,1, 7,21, 0,24, 0.00,60.00,SummerDesignDay
46,65161724.534485646
70,17038107.9196399
156,0.0
315,0.0
1127,38409055.80668603
3658,7014560.808159752
3757,2700000.0
1,MONTREAL INT'L ANN CLG .4% CONDNS ENTH=>MDB HVAC Sizing Pass 1,  45.47, -73.74,  -5.00,  36.00
2,1, 7,21, 0, 1, 0.00,15.00,SummerDesignDay
45,15217523.909998126
2,1, 7,21, 0, 1,15.00,30.00,SummerDesignDay
45,15021930.579286605
2,1, 7,21, 0, 1,30.00,45.00,SummerDesignDay
45,14829995.434587318
2,1, 7,21, 0, 1,45.00,60.00,SummerDesignDay
45,14640154.43715177
2,1, 7,21, 0, 1, 0.00,60.00,SummerDesignDay
46,59709604.36102382
70,18955405.728329998
156,0.0
315,0.0
1127,31039637.824534014
3658,7014560.808159752
3757,2700000.0
2,1, 7,21, 0, 2, 0.00,15.00,SummerDesignDay
45,12778577.643057236
2,1, 7,21, 0, 2,15.00,30.00,SummerDesignDay
45,12600828.680747386
2,1, 7,21, 0, 2,30.00,45.00,SummerDesignDay
45,12426985.656645607
2,1, 7,21, 0, 2,45.00,60.00,SummerDesignDay
45,12255741.142747281
2,1, 7,21, 0, 2, 0.00,60.00,SummerDesignDay
46,50062133.12319751
70,15127456.448878728
156,0.0
315,0.0
1127,25220115.86615897
3658,7014560.808159752
3757,2700000.0
2,1, 7,21, 0, 3, 0.00,15.00,SummerDesignDay
45,10989489.404480645
2,1, 7,21, 0, 3,15.00,30.00,SummerDesignDay
45,10869972.672577772
2,1, 7,21, 0, 3,30.00,45.00,SummerDesignDay
45,10689113.05854278
2,1, 7,21, 0, 3,45.00,60.00,SummerDesignDay
45,10534724.52786816
2,1, 7,21, 0, 3, 0.00,60.00,SummerDesignDay
46,43083299.66346936
70,11780420.883711062
156,0.0
315,0.0
1127,21588317.97159852
3658,7014560.808159752
3757,2700000.0
2,1, 7,21, 0, 4, 0.00,15.00,SummerDesignDay
45,9940894.863743354
2,1, 7,21, 0, 4,15.00,30.00,SummerDesignDay
45,9791770.28375229
2,1, 7,21, 0, 4,30.00,45.00,SummerDesignDay
45,9646144.426470835
2,1, 7,21, 0, 4,45.00,60.00,SummerDesignDay
45,9503116.03098195
2,1, 7,21, 0, 4, 0.00,60.00,SummerDesignDay
46,38881925.60494843
70,8739395.86495262
156,0.0
315,0.0
1127,20427968.93183606
3658,7014560.808159752
3757,2700000.0
2,1, 7,21, 0, 5, 0.00,15.00,SummerDesignDay
45,10054225.479135005
2,1, 7,21, 0, 5,15.00,30.00,SummerDesignDay
45,9928564.703946251
2,1, 7,21, 0, 5,30.00,45.00,SummerDesignDay
45,9973985.40433641
2,1, 7,21, 0, 5,45.00,60.00,SummerDesignDay
45,10366396.045942172
2,1, 7,21, 0, 5, 0.00,60.00,SummerDesignDay
46,40323171.633359835
70,8526875.273325987
156,0.0
315,0.0
1127,22081735.55187408
3658,7014560.808159752
3757,2700000.0
2,1, 7,21, 0, 6, 0.00,15.00,SummerDesignDay
45,11240277.116294103
2,1, 7,21, 0, 6,15.00,30.00,SummerDesignDay
45,11747578.057252668
2,1, 7,21, 0, 6,30.00,45.00,SummerDesignDay
45,12245880.088970764
2,1, 7,21, 0, 6,45.00,60.00,SummerDesignDay
45,12717078.799917515
2,1, 7,21, 0, 6, 0.00,60.00,SummerDesignDay
46,47950814.062435046
70,14467975.157241743
156,0.0
315,0.0
1127,26468278.09703359
3658,7014560.808159752
3757,0.0
2,1, 7,21, 0, 7, 0.00,15.00,SummerDesignDay
45,16778982.10784666
2,1, 7,21, 0, 7,15.00,30.00,SummerDesignDay
45,17378044.666902997
2,1, 7,21, 0, 7,30.00,45.00,SummerDesignDay
45,17875805.863547884
2,1, 7,21, 0, 7,45.00,60.00,SummerDesignDay
45,18347006.53371448
2,1, 7,21, 0, 7, 0.00,60.00,SummerDesignDay
46,70379839.17201202
70,24418298.262496576
156,0.0
315,0.0
1127,38946980.10135566
3658,7014560.808159752
3757,0.0
2,1, 7,21, 0, 8, 0.00,15.00,SummerDesignDay
45,20730814.513043266
2,1, 7,21, 0, 8,15.00,30.00,SummerDesignDay
45,21189902.17554314
2,1, 7,21, 0, 8,30.00,45.00,SummerDesignDay
45,21587819.5117609
2,1, 7,21, 0, 8,45.00,60.00,SummerDesignDay
45,21958307.97323699
2,1, 7,21, 0, 8, 0.00,60.00,SummerDesignDay
46,85466844.1735843
70,31315811.546416588
156,0.0
315,0.0
1127,47136471.81900824
3658,7014560.808159752
3757,0.0
2,1, 7,21, 0, 9, 0.00,15.00,SummerDesignDay
45,21506538.13352228
2,1, 7,21, 0, 9,15.00,30.00,SummerDesignDay
45,21837071.276197188
2,1, 7,21, 0, 9,30.00,45.00,SummerDesignDay
45,22143278.53951109
2,1, 7,21, 0, 9,45.00,60.00,SummerDesignDay
45,22423755.736414544
2,1, 7,21, 0, 9, 0.00,60.00,SummerDesignDay
46,87910643.6856451
70,36212234.764407896
156,0.0
315,0.0
1127,44683848.1130777
3658,7014560.808159752
3757,0.0
2,1, 7,21, 0,10, 0.00,15.00,SummerDesignDay
45,21798332.803146478
2,1, 7,21, 0,10,15.00,30.00,SummerDesignDay
45,22006534.63003817
2,1, 7,21, 0,10,30.00,45.00,SummerDesignDay
45,22183100.466013588
2,1, 7,21, 0,10,45.00,60.00,SummerDesignDay
45,22331989.22619819
2,1, 7,21, 0,10, 0.00,60.00,SummerDesignDay
46,88319957.12539643
70,39865177.52781247
156,0.0
315,0.0
1127,41440218.78942444
3658,7014560.808159752
3757,0.0
2,1, 7,21, 0,11, 0.00,15.00,SummerDesignDay
45,21233013.66680183
2,1, 7,21, 0,11,15.00,30.00,SummerDesignDay
45,21320046.77710219
2,1, 7,21, 0,11,30.00,45.00,SummerDesignDay
45,21403736.70405908
2,1, 7,21, 0,11,45.00,60.00,SummerDesignDay
45,21477483.54475601
2,1, 7,21, 0,11, 0.00,60.00,SummerDesignDay
46,85434280.6927191
70,39945752.28222276
156,0.0
315,0.0
1127,38473967.60233667
3658,7014560.808159752
3757,0.0
2,1, 7,21, 0,12, 0.00,15.00,SummerDesignDay
45,21803529.085793182
2,1, 7,21, 0,12,15.00,30.00,SummerDesignDay
45,21850774.04844986
2,1, 7,21, 0,12,30.00,45.00,SummerDesignDay
45,21920436.146220975
2,1, 7,21, 0,12,45.00,60.00,SummerDesignDay
45,22051345.93657469
2,1, 7,21, 0,12, 0.00,60.00,SummerDesignDay
46,87626085.2170387
70,41119038.19808044
156,0.0
315,0.0
1127,39492486.21079855
3658,7014560.808159752
3757,0.0
2,1, 7,21, 0,13, 0.00,15.00,SummerDesignDay
45,23495997.5374604
2,1, 7,21, 0,13,15.00,30.00,SummerDesignDay
45,23752081.26646544
2,1, 7,21, 0,13,30.00,45.00,SummerDesignDay
45,24049906.35521445
2,1, 7,21, 0,13,45.00,60.00,SummerDesignDay
45,24377065.036546875
2,1, 7,21, 0,13, 0.00,60.00,SummerDesignDay
46,95675050.19568716
70,45657874.40016113
156,0.0
315,0.0
1127,43002614.98736606
3658,7014560.808159752
3757,0.0
2,1, 7,21, 0,14, 0.00,15.00,SummerDesignDay
45,24336017.984935082
2,1, 7,21, 0,14,15.00,30.00,SummerDesignDay
45,24721850.90424417
2,1, 7,21, 0,14,30.00,45.00,SummerDesignDay
45,25102897.50959544
2,1, 7,21, 0,14,45.00,60.00,SummerDesignDay
45,25459139.396567605
2,1, 7,21, 0,14, 0.00,60.00,SummerDesignDay
46,99619905.7953423
70,50804764.90457149
156,0.0
315,0.0
1127,41800580.08261109
3658,7014560.808159752
3757,0.0
2,1, 7,21, 0,15, 0.00,15.00,SummerDesignDay
45,24285723.61502139
2,1, 7,21, 0,15,15.00,30.00,SummerDesignDay
45,24534936.23126902
2,1, 7,21, 0,15,30.00,45.00,SummerDesignDay
45,24766501.30706205
2,1, 7,21, 0,15,45.00,60.00,SummerDesignDay
45,24964842.23322589
2,1, 7,21, 0,15, 0.00,60.00,SummerDesignDay
46,98552003.38657835
70,55002193.82628989
156,0.0
315,0.0
1127,36535248.752128564
3658,7014560.808159752
3757,0.0
2,1, 7,21, 0,16, 0.00,15.00,SummerDesignDay
45,25536517.440521277
2,1, 7,21, 0,16,15.00,30.00,SummerDesignDay
45,25626409.15305232
2,1, 7,21, 0,16,30.00,45.00,SummerDesignDay
45,25673442.21200851
2,1, 7,21, 0,16,45.00,60.00,SummerDesignDay
45,25687483.62262354
2,1, 7,21, 0,16, 0.00,60.00,SummerDesignDay
46,102523852.42820564
70,57875126.63249909
156,0.0
315,0.0
1127,37634164.98754686
3658,7014560.808159752
3757,0.0
2,1, 7,21, 0,17, 0.00,15.00,SummerDesignDay
45,26470828.993706804
2,1, 7,21, 0,17,15.00,30.00,SummerDesignDay
45,26404044.18153843
2,1, 7,21, 0,17,30.00,45.00,SummerDesignDay
45,26312083.89714097
2,1, 7,21, 0,17,45.00,60.00,SummerDesignDay
45,26193039.337082315
2,1, 7,21, 0,17, 0.00,60.00,SummerDesignDay
46,105379996.40946852
70,56470796.14674766
156,0.0
315,0.0
1127,41894639.45456092
3658,7014560.808159752
3757,0.0
2,1, 7,21, 0,18, 0.00,15.00,SummerDesignDay
45,28703278.485320196
2,1, 7,21, 0,18,15.00,30.00,SummerDesignDay
45,28453077.632907532
2,1, 7,21, 0,18,30.00,45.00,SummerDesignDay
45,28176199.87977519
2,1, 7,21, 0,18,45.00,60.00,SummerDesignDay
45,27849541.77327575
2,1, 7,21, 0,18, 0.00,60.00,SummerDesignDay
46,113182097.77127866
70,55700392.10227005
156,0.0
315,0.0
1127,50467144.86084902
3658,7014560.808159752
3757,0.0
2,1, 7,21, 0,19, 0.00,15.00,SummerDesignDay
45,29498849.07060292
2,1, 7,21, 0,19,15.00,30.00,SummerDesignDay
45,29010934.24918612
2,1, 7,21, 0,19,30.00,45.00,SummerDesignDay
45,28375462.568127684
2,1, 7,21, 0,19,45.00,60.00,SummerDesignDay
45,27707550.65712859
2,1, 7,21, 0,19, 0.00,60.00,SummerDesignDay
46,114592796.5450453
70,50284575.019299746
156,0.0
315,0.0
1127,57293660.71758548
3658,7014560.808159752
3757,0.0
2,1, 7,21, 0,20, 0.00,15.00,SummerDesignDay
45,26635134.416373536
2,1, 7,21, 0,20,15.00,30.00,SummerDesignDay
45,25984094.551345482
2,1, 7,21, 0,20,30.00,45.00,SummerDesignDay
45,25497418.335257974
2,1, 7,21, 0,20,45.00,60.00,SummerDesignDay
45,25128131.22188591
2,1, 7,21, 0,20, 0.00,60.00,SummerDesignDay
46,103244778.5248629
70,39350052.370428234
156,0.0
315,2606580.0
1127,54273585.346275024